
Host: syahrul

Timers On : Sun May 24 05:30:23 2026
Timers Off: Sun May 24 05:30:24 2026

Wall Time:        1.27 seconds

                                                       Time (seconds)
Module                                       User      System        Wall        Calls

--------------------------------------------------------------------------------------

**************************************************************************************
